
     Program PWSCF v.6.4.1 starts on 19Aug2019 at 14:37:15 

     This program is part of the open-source Quantum ESPRESSO suite
     for quantum simulation of materials; please cite
         "P. Giannozzi et al., J. Phys.:Condens. Matter 21 395502 (2009);
         "P. Giannozzi et al., J. Phys.:Condens. Matter 29 465901 (2017);
          URL http://www.quantum-espresso.org", 
     in publications or presentations arising from this work. More details at
     http://www.quantum-espresso.org/quote

     Parallel version (MPI & OpenMP), running on      32 processor cores
     Number of MPI processes:                32
     Threads/MPI process:                     1

     MPI processes distributed on     1 nodes
     K-points division:     npool     =       8
     R & G space division:  proc/nbgrp/npool/nimage =       4
     Waiting for input...
     Reading input from standard input

     Current dimensions of program PWSCF are:
     Max number of different atomic species (ntypx) = 10
     Max number of k-points (npk) =  40000
     Max angular momentum in pseudopotentials (lmaxx) =  3

     Subspace diagonalization in iterative solution of the eigenvalue problem:
     one sub-group per band group will be used
     scalapack distributed-memory algorithm (size of sub-group:  2*  2 procs)


     Parallelization info
     --------------------
     sticks:   dense  smooth     PW     G-vecs:    dense   smooth      PW
     Min         159     159     49                 2604     2604     457
     Max         160     160     50                 2605     2605     460
     Sum         637     637    199                10417    10417    1837



     bravais-lattice index     =            2
     lattice parameter (alat)  =      10.2000  a.u.
     unit-cell volume          =     265.3020 (a.u.)^3
     number of atoms/cell      =            2
     number of atomic types    =            1
     number of electrons       =         8.00
     number of Kohn-Sham states=           16
     kinetic-energy cutoff     =      44.0000  Ry
     charge density cutoff     =     176.0000  Ry
     convergence threshold     =      1.0E-08
     mixing beta               =       0.2000
     number of iterations used =            8  plain     mixing
     Exchange-correlation      = PBE ( 1  4  3  4 0 0)

     celldm(1)=  10.200000  celldm(2)=   0.000000  celldm(3)=   0.000000
     celldm(4)=   0.000000  celldm(5)=   0.000000  celldm(6)=   0.000000

     crystal axes: (cart. coord. in units of alat)
               a(1) = (  -0.500000   0.000000   0.500000 )  
               a(2) = (   0.000000   0.500000   0.500000 )  
               a(3) = (  -0.500000   0.500000   0.000000 )  

     reciprocal axes: (cart. coord. in units 2 pi/alat)
               b(1) = ( -1.000000 -1.000000  1.000000 )  
               b(2) = (  1.000000  1.000000  1.000000 )  
               b(3) = ( -1.000000  1.000000 -1.000000 )  


     PseudoPot. # 1 for Si read from file:
     ./Si.pbe-n-rrkjus_psl.1.0.0.UPF
     MD5 check sum: d6a7803e5795d5f4204a1f3c8efd89fe
     Pseudo is Ultrasoft + core correction, Zval =  4.0
     Generated using "atomic" code by A. Dal Corso v.6.3
     Using radial grid of 1141 points,  6 beta functions with: 
                l(1) =   0
                l(2) =   0
                l(3) =   1
                l(4) =   1
                l(5) =   2
                l(6) =   2
     Q(r) pseudized with 0 coefficients 


     atomic species   valence    mass     pseudopotential
        Si             4.00    28.08600     Si( 1.00)

     48 Sym. Ops., with inversion, found (24 have fractional translation)



   Cartesian axes

     site n.     atom                  positions (alat units)
         1           Si  tau(   1) = (   0.0000000   0.0000000   0.0000000  )
         2           Si  tau(   2) = (   0.2500000   0.2500000   0.2500000  )

     number of k points=   120

     Number of k-points >= 100: set verbosity='high' to print them.

     Dense  grid:    10417 G-vectors     FFT dimensions: (  32,  32,  32)

     Estimated max dynamical RAM per process >       5.84 MB

     Estimated total dynamical RAM >     187.00 MB

     Check: negative core charge=   -0.000001

     Initial potential from superposition of free atoms

     starting charge    7.99888, renormalised to    8.00000
     Starting wfcs are    8 randomized atomic wfcs +    8 random wfcs

     total cpu time spent up to now is        2.0 secs

     Self-consistent Calculation

     iteration #  1     ecut=    44.00 Ry     beta= 0.20
     Davidson diagonalization with overlap
     ethr =  1.00E-02,  avg # of iterations =  5.5

     Threshold (ethr) on eigenvalues was too large:
     Diagonalizing with lowered threshold

     Davidson diagonalization with overlap
     ethr =  7.29E-04,  avg # of iterations =  1.4

     total cpu time spent up to now is        3.7 secs

     total energy              =     -22.84505882 Ry
     Harris-Foulkes estimate   =     -22.85078475 Ry
     estimated scf accuracy    <       0.05831354 Ry

     iteration #  2     ecut=    44.00 Ry     beta= 0.20
     Davidson diagonalization with overlap
     ethr =  7.29E-04,  avg # of iterations =  1.1

     total cpu time spent up to now is        4.2 secs

     total energy              =     -22.83689574 Ry
     Harris-Foulkes estimate   =     -22.84528671 Ry
     estimated scf accuracy    <       0.03366308 Ry

     iteration #  3     ecut=    44.00 Ry     beta= 0.20
     Davidson diagonalization with overlap
     ethr =  4.21E-04,  avg # of iterations =  1.4

     total cpu time spent up to now is        4.8 secs

     total energy              =     -22.83878548 Ry
     Harris-Foulkes estimate   =     -22.83884992 Ry
     estimated scf accuracy    <       0.00044681 Ry

     iteration #  4     ecut=    44.00 Ry     beta= 0.20
     Davidson diagonalization with overlap
     ethr =  5.59E-06,  avg # of iterations =  5.4

     total cpu time spent up to now is        5.9 secs

     total energy              =     -22.83880677 Ry
     Harris-Foulkes estimate   =     -22.83880768 Ry
     estimated scf accuracy    <       0.00001446 Ry

     iteration #  5     ecut=    44.00 Ry     beta= 0.20
     Davidson diagonalization with overlap
     ethr =  1.81E-07,  avg # of iterations =  1.1

     total cpu time spent up to now is        6.4 secs

     total energy              =     -22.83880826 Ry
     Harris-Foulkes estimate   =     -22.83880818 Ry
     estimated scf accuracy    <       0.00000062 Ry

     iteration #  6     ecut=    44.00 Ry     beta= 0.20
     Davidson diagonalization with overlap
     ethr =  7.78E-09,  avg # of iterations =  1.0

     total cpu time spent up to now is        6.8 secs

     total energy              =     -22.83880842 Ry
     Harris-Foulkes estimate   =     -22.83880829 Ry
     estimated scf accuracy    <       0.00000020 Ry

     iteration #  7     ecut=    44.00 Ry     beta= 0.20
     Davidson diagonalization with overlap
     ethr =  2.49E-09,  avg # of iterations =  1.3

     total cpu time spent up to now is        7.4 secs

     End of self-consistent calculation

     Number of k-points >= 100: set verbosity='high' to print the bands.

     highest occupied, lowest unoccupied level (ev):     6.3956    6.9460

!    total energy              =     -22.83880844 Ry
     Harris-Foulkes estimate   =     -22.83880843 Ry
     estimated scf accuracy    <          4.4E-09 Ry

     The total energy is the sum of the following terms:

     one-electron contribution =       5.30807069 Ry
     hartree contribution      =       1.08421714 Ry
     xc contribution           =     -12.33133766 Ry
     ewald contribution        =     -16.89975861 Ry

     convergence has been achieved in   7 iterations

     Writing output data file si.save/

     init_run     :      0.53s CPU      0.58s WALL (       1 calls)
     electrons    :      5.03s CPU      5.38s WALL (       1 calls)

     Called by init_run:
     wfcinit      :      0.15s CPU      0.17s WALL (       1 calls)
     potinit      :      0.02s CPU      0.02s WALL (       1 calls)
     hinit0       :      0.34s CPU      0.37s WALL (       1 calls)

     Called by electrons:
     c_bands      :      4.31s CPU      4.60s WALL (       8 calls)
     sum_band     :      0.59s CPU      0.64s WALL (       8 calls)
     v_of_rho     :      0.09s CPU      0.10s WALL (       8 calls)
     newd         :      0.03s CPU      0.04s WALL (       8 calls)
     mix_rho      :      0.01s CPU      0.01s WALL (       8 calls)

     Called by c_bands:
     init_us_2    :      0.09s CPU      0.09s WALL (     255 calls)
     cegterg      :      3.35s CPU      3.64s WALL (     120 calls)

     Called by sum_band:
     sum_band:bec :      0.00s CPU      0.00s WALL (     120 calls)
     addusdens    :      0.03s CPU      0.04s WALL (       8 calls)

     Called by *egterg:
     h_psi        :      2.04s CPU      2.31s WALL (     392 calls)
     s_psi        :      0.07s CPU      0.08s WALL (     392 calls)
     g_psi        :      0.02s CPU      0.02s WALL (     257 calls)
     cdiaghg      :      0.93s CPU      0.95s WALL (     362 calls)

     Called by h_psi:
     h_psi:pot    :      2.03s CPU      2.30s WALL (     392 calls)
     h_psi:calbec :      0.10s CPU      0.11s WALL (     392 calls)
     vloc_psi     :      1.86s CPU      2.10s WALL (     392 calls)
     add_vuspsi   :      0.07s CPU      0.08s WALL (     392 calls)

     General routines
     calbec       :      0.13s CPU      0.15s WALL (     512 calls)
     fft          :      0.04s CPU      0.04s WALL (      89 calls)
     ffts         :      0.00s CPU      0.00s WALL (       8 calls)
     fftw         :      2.04s CPU      2.31s WALL (   11362 calls)

     Parallel routines
     fft_scatt_xy :      0.31s CPU      0.35s WALL (   11459 calls)
     fft_scatt_yz :      0.89s CPU      1.02s WALL (   11459 calls)

     PWSCF        :      7.04s CPU      7.54s WALL


   This run was terminated on:  14:37:22  19Aug2019            

=------------------------------------------------------------------------------=
   JOB DONE.
=------------------------------------------------------------------------------=
